1231
step1_pdbreader.pdb
N         27.34000       24.43000        2.61400
H         26.94600       23.58700        2.15000
H         27.76200       24.15900        3.52500
H         28.07100       24.85000        2.00500
C         26.26600       25.41300        2.84200
H         25.88000       25.74200        1.88500
C         25.11200       24.88000        3.64900
H         24.23600       25.53600        3.43400
H         24.84000       23.86600        3.28000
C         25.35300       24.86000        5.13400
H         26.31100       24.34700        5.36300
H         25.43000       25.90200        5.51400
S         23.93000       23.95900        5.90400
C         24.44700       23.98400        7.62000
H         23.70600       23.46600        8.26500
H         25.42700       23.47500        7.74900
H         24.55200       25.02600        7.99100
C         26.91300       26.63900        3.53100
O         27.88600       26.46300        4.26300
N         26.33500       27.77000        3.25800
H         25.55700       27.90800        2.64800
C         26.85000       29.02100        3.89800
H         27.89300       28.86600        4.14500
C         26.73300       30.14800        2.90500
H         27.52500       29.98500        2.13800
H         25.76000       30.06800        2.36900
C         26.88200       31.54600        3.40900
H         26.07000       31.78700        4.12800
H         27.85100       31.67300        3.93400
C         26.78600       32.56200        2.27000
O         27.78300       33.16000        1.87000
N         25.56200       32.73300        1.80600
H         25.45000       33.38300        1.06000
H         24.80400       32.23500        2.21400
C         26.10000       29.25300        5.20200
O         24.86500       29.02400        5.33000
N         26.84900       29.65600        6.21700
H         27.84500       29.71900        6.20300
C         26.23500       30.05800        7.49700
H         25.18100       30.24300        7.33300
C         26.34400       29.05000        8.64500
H         25.91000       29.58400        9.52800
C         25.49100       27.77100        8.28700
H         25.42200       27.09000        9.16100
H         24.45700       28.05300        7.99800
H         25.95000       27.21000        7.44600
C         27.81000       28.74800        8.99900
H         28.25400       28.08100        8.22600
H         28.38800       29.70000        8.98400
C         27.96700       28.08700       10.41700
H         29.04200       27.93900       10.65700
H         27.52100       28.73400       11.20300
H         27.46800       27.09600       10.45200
C         26.88200       31.42800        7.86200
O         27.90600       31.71100        7.26400
N         26.21400       32.09700        8.77100
H         25.36700       31.83700        9.23100
C         26.77200       33.43600        9.19700
H         27.68600       33.59600        8.63800
C         25.69500       34.49800        8.94600
H         24.77600       34.22400        9.50800
H         26.02100       35.49400        9.31600
C         25.28800       34.60900        7.49900
C         24.14700       33.96600        7.03800
H         23.52600       33.41500        7.73100
C         23.81200       34.03100        5.67700
H         22.94100       33.50800        5.30900
C         24.62000       34.77800        4.85300
H         24.28400       34.88500        3.83100
C         26.13600       35.34600        6.64000
H         27.01500       35.83500        7.03700
C         25.81000       35.39200        5.26700
H         26.47300       35.89000        4.57300
C         27.15100       33.36200       10.65000
O         26.35000       32.77800       11.39500
N         28.26000       33.94300       11.09600
H         28.92000       34.39600       10.50300
C         28.60500       33.96500       12.50300
H         27.82100       33.49300       13.08200
C         29.96300       33.31700       12.81400
H         30.74600       33.89500       12.26500
C         30.21100       33.39400       14.30400
H         31.17100       32.89600       14.56100
H         30.27900       34.44500       14.65400
H         29.39900       32.88400       14.86400
C         29.95700       31.83800       12.35200
H         30.91900       31.34300       12.60600
H         29.13400       31.27800       12.84700
H         29.82000       31.76100       11.25300
C         28.63800       35.46100       12.90000
O         29.52200       36.10300       12.32000
N         27.75100       35.86700       13.74000
H         27.06700       35.27900       14.16800
C         27.69100       37.31500       14.14300
H         28.19100       37.90500       13.38400
C         26.21900       37.68400       14.30700
H         25.70600       37.42000       13.35300
H         25.76900       37.03700       15.09300
C         25.88400       39.13900       14.61500
H         26.32500       39.41400       15.60000
H         26.35800       39.79100       13.84500
C         24.34800       39.29600       14.64200
H         23.93100       38.83600       13.71700
H         23.95500       38.71600       15.50900
C         23.86500       40.72300       14.74900
H         24.32500       41.22500       15.62900
H         24.13600       41.29700       13.83500
N         22.37500       40.72000       14.90700
H         22.02300       41.69600       14.98400
H         21.93900       40.25900       14.08200
H         22.12000       40.19300       15.76700
C         28.46900       37.47500       15.42000
O         28.21300       36.75300       16.41100
N         29.42600       38.43000       15.44600
H         29.66100       39.03800       14.68800
C         30.22500       38.64300       16.66200
H         30.07400       37.77400       17.28900
C         31.74400       38.87900       16.29900
H         32.31000       38.78900       17.25800
O         31.73700       40.25700       15.82400
H         32.64800       40.44800       15.57700
C         32.26000       37.96900       15.17100
H         33.35500       38.09300       15.03300
H         32.06500       36.90300       15.41400
H         31.75900       38.20300       14.20700
C         29.66400       39.83900       17.43400
O         28.85000       40.56500       16.85900
N         30.13200       40.06900       18.64200
H         30.85000       39.53500       19.08300
C         29.60700       41.18000       19.46700
H         28.53000       41.14900       19.36000
C         29.91900       40.89000       20.93800
H         31.01200       40.68300       21.00800
H         29.74200       41.81200       21.53400
C         29.18300       39.72200       21.58100
H         29.63900       38.79200       21.16200
C         29.30800       39.75000       23.09500
H         28.72600       38.92000       23.55000
H         30.37000       39.64100       23.40200
H         28.92200       40.70800       23.50300
C         27.70000       39.72100       21.22800
H         27.19300       38.84900       21.69500
H         27.19200       40.63800       21.58900
H         27.56200       39.65500       20.12700
C         30.07500       42.53800       18.98400
O         29.58600       43.57000       19.48300
N         30.99100       42.57100       17.99800
H         31.43600       41.82100       17.50900
C         31.42200       43.94000       17.55300
H         31.06800       44.61800       18.31800
C         32.97900       43.91800       17.44500
H         33.29100       44.97200       17.24300
O         33.17400       43.06700       16.26500
H         34.12800       43.00300       16.14900
C         33.65700       43.31900       18.67200
H         34.76000       43.42500       18.60500
H         33.31900       43.83900       19.59400
H         33.41700       42.23900       18.77400
C         30.75500       44.35100       16.27700
O         31.20700       45.26800       15.56600
N         29.72100       43.67300       15.88500
H         29.38900       42.89900       16.42300
C         28.97800       43.96000       14.67800
H         28.89200       45.03800       14.64700
H         28.03500       43.44200       14.79000
C         29.60400       43.50700       13.39300
O         29.21900       43.98100       12.30100
N         30.56300       42.62300       13.49500
H         30.91800       42.31800       14.37700
C         31.19100       42.01200       12.33100
H         31.00100       42.61800       11.45300
C         32.67200       41.71700       12.50500
H         33.17400       42.68500       12.73700
H         32.81000       41.07100       13.40100
C         33.28000       41.08600       11.22700
H         32.73400       40.14400       10.99000
H         33.12700       41.78300       10.37100
C         34.76200       40.79900       11.47000
H         35.14600       41.53600       12.21200
H         34.84900       39.78700       11.93000
C         35.61400       40.84700       10.24000
H         35.71800       41.89400        9.87800
H         36.63000       40.44600       10.45200
N         35.10000       40.07300        9.10100
H         35.74700       40.16000        8.29100
H         35.01700       39.07200        9.37100
H         34.16200       40.43400        8.83300
C         30.45900       40.66600       12.13000
O         30.25300       39.99100       13.13300
N         30.16300       40.33800       10.88600
H         30.30700       40.87700       10.05600
C         29.54200       39.02000       10.65300
H         29.53200       38.48400       11.59200
C         28.11300       39.04900       10.01500
H         28.19800       39.67500        9.09300
O         27.28000       39.72200       10.99600
H         26.39500       39.73400       10.61600
C         27.58800       37.63500        9.71500
H         26.62700       37.68000        9.16100
H         28.31600       37.07600        9.09000
H         27.42300       37.06200       10.65300
C         30.49400       38.26100        9.72900
O         30.84900       38.85000        8.70600
N         30.79500       37.01500       10.09500
H         30.50300       36.48200       10.88700
C         31.72000       36.28900        9.17600
H         32.04500       36.99600        8.42300
C         32.99500       35.88300        9.93400
H         33.82300       36.39900        9.38500
C         33.10900       36.38100       11.43500
H         34.12100       36.17300       11.84000
H         32.93800       37.47600       11.50300
H         32.36500       35.86900       12.08100
C         33.30600       34.38100        9.84000
H         32.41500       33.79200       10.15200
H         33.51600       34.12200        8.77700
C         34.53500       34.02800       10.72000
H         34.79500       32.95300       10.60600
H         35.41800       34.63300       10.42100
H         34.32400       34.21900       11.79300
C         30.95500       35.21100        8.45900
O         30.02500       34.61800        9.04000
N         31.24400       34.98600        7.19700
H         31.90500       35.46000        6.61600
C         30.50500       33.88400        6.51200
H         29.67600       33.61100        7.15100
C         30.09100       34.39300        5.07800
H         29.49600       33.56800        4.61600
O         31.44000       34.51300        4.48700
H         31.30000       34.83700        3.59100
C         29.42000       35.75600        5.11900
H         29.03800       36.03900        4.11500
H         28.55900       35.74300        5.82100
H         30.13000       36.54200        5.45500
C         31.40900       32.68000        6.44600
O         32.61900       32.81200        6.12500
N         30.88400       31.48500        6.66600
H         29.91700       31.33700        6.86300
C         31.67700       30.27500        6.63900
H         32.65300       30.52500        6.24400
C         31.56200       29.68600        8.04500
H         30.86300       30.33800        8.61900
H         31.07100       28.69000        7.98100
C         32.63100       29.44400        9.06000
H         32.98400       28.40500        8.85400
C         33.81400       30.39000        9.03000
H         34.52300       30.15300        9.85200
H         34.35800       30.30600        8.06500
H         33.47900       31.44200        9.15400
C         31.94500       29.44900       10.43600
H         32.68900       29.25400       11.23900
H         31.46500       30.42500       10.65100
H         31.16600       28.65800       10.48500
C         31.02200       29.28800        5.66500
O         29.80900       29.39500        5.54500
N         31.83400       28.41200        5.12500
H         32.82600       28.35200        5.19900
C         31.22000       27.34100        4.27500
H         30.15000       27.47700        4.17600
C         31.82700       27.26200        2.89400
H         32.93600       27.29700        2.99900
H         31.59500       26.27400        2.43600
C         31.36300       28.41000        1.96200
H         30.26000       28.47900        1.98200
H         31.79500       29.37900        2.28100
C         31.67100       28.29100        0.49800
O         30.86900       28.62100       -0.36600
O         32.83500       27.86100        0.27800
C         31.44000       26.07900        5.08000
O         32.57600       25.80200        5.46100
N         30.31000       25.45800        5.38400
H         29.41200       25.77100        5.08600
C         30.28800       24.24500        6.19300
H         31.27100       23.79600        6.12900
C         29.90300       24.59000        7.66500
H         29.86800       23.63100        8.23800
C         30.86200       25.49600        8.38900
H         30.48700       25.71600        9.41200
H         31.86300       25.03000        8.49700
H         30.97500       26.46100        7.84900
C         28.47600       25.13500        7.70500
H         28.19500       25.42500        8.74000
H         28.38200       26.03000        7.05300
H         27.74500       24.37400        7.36000
C         29.27900       23.22700        5.64100
O         28.47800       23.52200        4.72500
N         29.38000       22.05700        6.23200
H         30.09300       21.85500        6.89700
C         28.46800       20.94000        5.98000
H         27.67700       21.24400        5.30500
C         29.21300       19.69700        5.50600
H         30.08500       19.53600        6.18100
H         28.56500       18.80000        5.62600
C         29.72800       19.75500        4.06000
H         30.46800       20.57000        3.96400
H         30.20100       18.79600        3.76800
C         28.75400       20.06100        2.97800
O         27.54600       19.99200        2.98500
O         29.33600       20.42300        1.90400
C         27.81900       20.60900        7.31600
O         28.44900       20.67400        8.36000
N         26.55900       20.22000        7.28800
C         25.71400       20.10800        6.07300
H         25.86500       19.15700        5.51400
H         25.83300       20.96400        5.36900
C         25.82900       19.82500        8.49400
H         25.69300       20.67800        9.14800
C         24.46900       19.33200        7.95200
H         23.62300       19.55100        8.64200
H         24.47400       18.25000        7.69000
C         24.29900       20.13400        6.70400
H         23.94700       21.15900        6.93400
H         23.57300       19.67500        5.99500
C         26.54100       18.73200        9.25100
O         26.33300       18.53600       10.45700
N         27.36100       17.95900        8.55900
H         27.57200       18.06300        7.58700
C         28.05400       16.83500        9.21000
H         27.35500       16.42400        9.92600
C         28.52300       15.82000        8.18200
H         29.38900       15.26600        8.61200
H         27.72300       15.07200        7.98300
O         28.94600       16.44500        6.96700
H         29.43000       15.78100        6.46000
C         29.25800       17.31800        9.98400
O         29.93000       16.47700       10.60600
N         29.59900       18.59900        9.82800
H         29.16800       19.31000        9.27900
C         30.79600       19.08300       10.56600
H         31.57700       18.34000       10.44800
C         31.15500       20.51500       10.04800
H         30.22000       21.08200        9.86500
H         31.75400       21.06400       10.80100
C         31.92300       20.43600        8.75500
O         32.49300       19.37400        8.45600
O         31.83800       21.40200        7.96800
C         30.49100       19.16200       12.04000
O         29.36700       19.52300       12.44100
N         31.51000       18.93600       12.85200
H         32.41800       18.66400       12.53400
C         31.39800       19.06400       14.28600
H         30.38000       18.81200       14.55000
C         32.49200       18.19300       14.99500
H         32.38000       18.38500       16.09000
O         33.77800       18.73900       14.51600
H         34.45800       18.20200       14.93800
C         32.35200       16.70000       14.63000
H         33.05700       16.08000       15.22400
H         31.32100       16.34400       14.84300
H         32.56300       16.53000       13.55200
C         31.59300       20.55300       14.65500
O         32.15900       21.31100       13.86100
N         31.11300       20.86300       15.86000
H         30.61600       20.23400       16.45500
C         31.28800       22.20100       16.41700
H         30.89600       22.89700       15.68600
C         30.52000       22.30000       17.76400
H         30.90100       21.43800       18.36800
C         30.83200       23.69900       18.35800
H         30.44200       23.77900       19.39400
H         31.92700       23.87800       18.39600
H         30.36600       24.50200       17.74900
C         29.00600       22.04300       17.44200
H         28.86200       20.98600       17.12500
H         28.40900       22.19200       18.37100
C         28.40700       22.94800       16.36600
H         27.32300       22.73700       16.24400
H         28.52400       24.01800       16.64400
H         28.90100       22.78200       15.38600
C         32.77600       22.51900       16.57700
O         33.23300       23.65900       16.38400
N         33.54800       21.52600       16.95000
H         33.24200       20.60500       17.17500
C         35.03100       21.72200       17.06900
H         35.21500       22.50000       17.79900
C         35.66700       20.38300       17.44700
H         35.09100       19.95300       18.29900
H         35.55400       19.66100       16.60700
C         37.12800       20.29300       17.87200
H         37.77100       20.69600       17.06900
H         37.30600       20.86500       18.80400
C         37.56100       18.85100       18.08200
O         37.75800       18.02400       17.19500
O         37.62800       18.59900       19.31300
C         35.61500       22.19000       15.75900
O         36.53200       23.04600       15.72400
N         35.13900       21.62400       14.66200
H         34.42500       20.92700       14.70800
C         35.59000       21.94500       13.30200
H         36.67200       21.86700       13.32500
C         35.06400       20.95700       12.25500
H         35.48500       19.95500       12.49000
H         33.96000       20.87700       12.32100
C         35.54100       21.41800       10.87100
O         36.77200       21.62300       10.67600
N         34.62800       21.59500        9.92000
H         34.95100       21.88300        9.02300
H         33.66900       21.41100       10.11000
C         35.23800       23.38200       12.92000
O         36.06600       24.10900       12.33300
N         34.00700       23.74500       13.25000
H         33.33600       23.15400       13.69000
C         33.53300       25.09700       12.97800
H         33.61500       25.27800       11.91400
C         32.06000       25.25700       13.36400
H         31.93600       24.85200       14.39800
C         31.68400       26.74900       13.34200
H         30.60700       26.87900       13.58200
H         32.26200       27.32800       14.09200
H         31.86700       27.18500       12.33700
C         31.15200       24.42100       12.47700
H         30.08600       24.58000       12.74500
H         31.28900       24.69600       11.40900
H         31.36800       23.33800       12.58800
C         34.44100       26.09900       13.68400
O         34.88300       27.09000       13.09300
N         34.73400       25.82200       14.94900
H         34.40100       25.01600       15.43600
C         35.59600       26.71500       15.73600
H         35.14800       27.70100       15.70900
C         35.71500       26.20300       17.17200
H         35.97000       25.11900       17.11400
H         36.58000       26.70100       17.66400
C         34.34300       26.44500       17.89800
H         34.05600       27.51600       17.78800
H         33.55500       25.83700       17.39700
C         34.50900       26.07700       19.36000
H         34.82800       25.01100       19.42100
H         35.33400       26.69600       19.78200
C         33.20600       26.31100       20.12200
H         32.91200       27.38300       20.07100
H         32.38400       25.70000       19.68800
N         33.45500       25.91000       21.54600
H         32.59400       26.05200       22.11200
H         33.73000       24.90700       21.58100
H         34.22400       26.48900       21.93900
C         36.97500       26.82600       15.10700
O         37.57900       27.92600       15.15900
N         37.49900       25.74300       14.57100
H         37.04400       24.85400       14.60600
C         38.79400       25.76100       13.88000
H         39.55300       26.21800       14.50500
C         39.28500       24.33600       13.56600
H         39.37500       23.75700       14.51000
H         38.56700       23.80300       12.90500
H         40.28100       24.34600       13.07200
C         38.72800       26.59100       12.61100
O         39.70400       27.34600       12.27700
N         37.63300       26.54300       11.86700
H         36.86200       25.94100       12.06700
C         37.47100       27.39100       10.66800
H         38.34200       27.23600       10.04300
C         36.19300       27.05800        9.91100
H         35.34300       27.23500       10.61000
H         36.06700       27.78300        9.07600
C         36.15300       25.62000        9.40900
H         36.89600       25.50000        8.58800
H         36.45900       24.93900       10.23600
C         34.75800       25.28000        8.90000
H         34.15700       24.89200        9.75400
H         34.27500       26.22300        8.55400
C         34.79300       24.26400        7.76700
H         35.66200       23.57900        7.88400
H         33.86300       23.65400        7.76000
N         34.91400       24.94400        6.44100
H         34.93800       24.23600        5.67900
H         34.10100       25.57700        6.30000
H         35.79000       25.50400        6.41900
C         37.44100       28.88200       11.05200
O         38.02000       29.77200       10.38200
N         36.81100       29.17000       12.19200
H         36.36700       28.51700       12.80200
C         36.73100       30.57000       12.64500
H         36.46700       31.18600       11.79500
C         35.70800       30.77600       13.80600
H         35.89500       29.91700       14.49900
C         35.87400       32.13800       14.51200
H         35.24200       32.18500       15.42300
H         36.92700       32.29600       14.82500
H         35.57900       32.97200       13.84100
C         34.22800       30.63000       13.31900
H         33.95100       31.50400       12.68800
H         34.14700       29.72200       12.67800
C         33.28400       30.50400       14.55200
H         32.23600       30.34100       14.22000
H         33.58400       29.64500       15.18900
H         33.31000       31.42700       15.16900
C         38.14800       30.98100       13.06900
O         38.54400       32.15000       12.85600
N         38.88300       30.11000       13.71300
H         38.62600       29.18200       13.97800
C         40.26900       30.50800       14.11500
H         40.20100       31.42600       14.68500
C         40.99600       29.39900       14.86500
H         40.41500       29.20600       15.79700
H         40.94900       28.45900       14.26900
C         42.44500       29.84800       15.18200
H         43.04600       29.90600       14.24900
H         42.45100       30.85200       15.65300
C         43.09000       28.82800       16.09500
O         42.77000       27.65500       15.90600
N         43.89800       29.25200       17.05000
H         44.31100       28.55700       17.63200
H         44.05500       30.22700       17.16900
C         41.09200       30.80800       12.85100
O         41.82800       31.80800       12.68100
N         41.00100       29.87800       11.93100
H         40.47700       29.03200       11.99200
C         41.71800       30.02200       10.64300
H         42.77700       30.03800       10.87500
C         41.39800       28.78000        9.81000
H         41.23500       27.91800       10.48800
H         40.47600       28.93500        9.21600
C         42.62600       28.55700        8.92800
O         43.66600       28.26200        9.53900
O         42.43000       28.81200        7.72800
C         41.39900       31.33800        9.96700
O         42.26000       32.03600        9.38100
N         40.11700       31.75000        9.98800
H         39.33700       31.32800       10.44700
C         39.80800       32.99400        9.23300
H         40.58200       33.05100        8.47800
C         38.61500       32.80100        8.32000
H         38.65500       33.60800        7.55300
H         38.73200       31.84100        7.76900
C         37.22000       32.82200        8.82700
H         36.85200       31.77500        8.92500
H         37.21100       33.27300        9.84600
C         36.35100       33.61300        7.83800
H         35.32400       33.69900        8.26200
H         36.76600       34.64400        7.75900
C         36.32200       32.94400        6.47700
H         37.34700       32.63800        6.17100
H         35.67700       32.03800        6.50100
N         35.76800       33.94500        5.48900
H         35.73200       33.52500        4.53800
H         34.80900       34.22500        5.77900
H         36.37900       34.78700        5.47100
C         39.83700       34.27100        9.99500
O         40.16400       35.32300        9.34500
N         39.65500       34.33500       11.28500
H         39.48400       33.51000       11.81600
C         39.67600       35.54700       12.07200
H         39.96100       36.35000       11.40400
C         38.29000       35.81400       12.69800
H         38.04100       34.95900       13.36800
H         38.33900       36.71200       13.35400
C         37.15600       35.98500       11.68800
H         37.27500       35.25000       10.87100
H         36.16900       35.83800       12.17000
C         37.19200       37.36100       11.03300
O         37.51900       38.36000       11.64500
O         36.86100       37.32000        9.82200
C         40.67500       35.52700       13.20000
O         40.81400       36.52800       13.91100
N         41.31700       34.39300       13.43200
H         41.11300       33.56200       12.91600
C         42.34500       34.26900       14.43100
H         42.88900       35.20100       14.36000
H         42.91000       33.40000       14.12200
C         41.94900       34.07600       15.84200
O         42.82900       34.00000       16.73900
N         40.64200       33.91600       16.11200
H         39.88900       33.91600       15.45700
C         40.22600       33.71600       17.50900
H         40.88000       34.33100       18.11400
C         38.69300       34.10600       17.59500
H         38.18500       33.40500       16.88500
C         38.14600       33.93200       19.02700
H         37.04300       34.05700       19.04200
H         38.37500       32.91900       19.41800
H         38.58900       34.68200       19.71600
C         38.47100       35.54600       17.04500
H         38.80300       36.29300       17.80000
H         39.10600       35.68800       16.14000
C         36.95800       35.74600       16.68000
H         36.79900       36.75100       16.23200
H         36.62800       34.98100       15.94500
H         36.31700       35.66700       17.58300
C         40.44900       32.27800       17.94500
O         39.93600       31.33600       17.31500
N         41.18900       32.08500       19.03100
C         41.82200       33.18800       19.81300
H         41.13200       33.67100       20.54200
H         42.28500       33.97700       19.17700
C         41.46100       30.75100       19.59400
H         42.04000       30.15100       18.90200
C         42.19500       31.14200       20.91300
H         42.94700       30.38300       21.22500
H         41.49000       31.34400       21.75100
C         42.90400       32.41400       20.55300
H         43.79900       32.21900       19.92900
H         43.23000       32.99900       21.44400
C         40.16800       30.02600       19.91800
O         39.26400       30.66200       20.52100
N         40.05900       28.75800       19.60700
C         41.03500       27.90900       18.87900
H         41.74200       27.37000       19.54900
H         41.61900       28.46300       18.10800
C         38.81700       28.02000       19.88900
H         38.00900       28.42900       19.29300
C         39.09000       26.62900       19.32500
H         38.18000       26.15100       18.89900
H         39.56400       25.94800       20.06700
C         40.08200       26.90400       18.19800
H         39.58700       27.32000       17.29900
H         40.66000       26.00500       17.88400
C         38.42100       28.04800       21.34100
O         37.21300       28.03600       21.70400
N         39.37400       28.09000       22.24000
H         40.35100       28.14200       22.05300